# vtk DataFile Version 3.0
MOAB 5.3.0
ASCII
DATASET UNSTRUCTURED_GRID
POINTS 152 double
0.75 0 0
0.75 0.6000000238 0
0.75 -0.6000000238 0
-0.75 0 3.238820633e-15
0.2086069137 -7.139040099e-05 0.9268134236
0.2086069137 -7.139040099e-05 -0.9268134236
0.9499999881 1.110223025e-15 -2.326828888e-16
0.9499999881 0.6000000238 0
0.9499999881 -0.6000000238 0
-0.9499999881 0 -2.414966954e-15
0.6502731442 -1.110223025e-16 -0.373690784
0.6502731442 5.551115123e-16 0.373690784
-0.1668906957 0.6000000238 0.7311959267
-0.1668906957 0.6000000238 -0.7311959267
-0.1668906957 -0.6000000238 0.7311959267
-0.1668906957 -0.6000000238 -0.7311959267
-0.6757266521 0.6000000238 0.3254128098
-0.6757266521 0.6000000238 -0.3254128098
-0.6757266521 -0.6000000238 0.3254128098
-0.6757266521 -0.6000000238 -0.3254128098
0.4676173627 0.6000000238 0.5863736272
0.4676173627 0.6000000238 -0.5863736272
0.4676173627 -0.6000000238 0.5863736272
0.4676173627 -0.6000000238 -0.5863736272
-0.4676173627 0 0.5863736272
-0.4676173627 0 -0.5863736272
-0.855920434 0.6000000238 0.4121895432
-0.855920434 0.6000000238 -0.4121895432
-0.855920434 -0.6000000238 0.4121895432
-0.855920434 -0.6000000238 -0.4121895432
0.8238621354 5.189182048e-05 0.4730234146
0.8238621354 5.189182048e-05 -0.4730234146
0.1467011422 0 0.7355126143
0.1467011422 0 -0.7355126143
-0.2113948911 0.6000000238 0.9261814952
-0.2113948911 0.6000000238 -0.9261814952
-0.2113948911 -0.6000000238 0.9261814952
-0.2113948911 -0.6000000238 -0.9261814952
0.5923153162 0.6000000238 0.7427399158
0.5923153162 0.6000000238 -0.7427399158
0.5923153162 -0.6000000238 0.7427399158
0.5923153162 -0.6000000238 -0.7427399158
-0.5923153162 0 0.7427399158
-0.5923153162 0 -0.7427399158
0.75 0 0
0.75 0.6000000238 0
0.75 -0.6000000238 0
-0.75 0 3.238820633e-15
0.3740938902 0.6000000238 0.4690988958
0.3740938902 0.6000000238 -0.4690988958
0.3740938902 -0.6000000238 0.4690988958
0.3740938902 -0.6000000238 -0.4690988958
-0.3740938902 0 0.4690988958
-0.3740938902 0 -0.4690988958
0.6502731442 -1.110223025e-16 -0.373690784
0.6502731442 5.551115123e-16 0.373690784
0.5053915977 0 -0.3233872652
0.5053915977 -3.330669074e-16 0.3233872652
-0.1668906957 0.6000000238 0.7311959267
-0.1668906957 0.6000000238 -0.7311959267
-0.1668906957 -0.6000000238 0.7311959267
-0.1668906957 -0.6000000238 -0.7311959267
-0.6757266521 0.6000000238 0.3254128098
-0.6757266521 0.6000000238 -0.3254128098
-0.6757266521 -0.6000000238 0.3254128098
-0.6757266521 -0.6000000238 -0.3254128098
-0.1335125566 0.6000000238 0.5849567652
-0.1335125566 0.6000000238 -0.5849567652
-0.1335125566 -0.6000000238 0.5849567652
-0.1335125566 -0.6000000238 -0.5849567652
-0.5405813456 0.6000000238 0.26033023
-0.5405813456 0.6000000238 -0.26033023
-0.5405813456 -0.6000000238 0.26033023
-0.5405813456 -0.6000000238 -0.26033023
0.4676173627 0.6000000238 0.5863736272
0.4676173627 0.6000000238 -0.5863736272
0.4676173627 -0.6000000238 0.5863736272
0.4676173627 -0.6000000238 -0.5863736272
-0.4676173627 0 0.5863736272
-0.4676173627 0 -0.5863736272
0.6000000238 0 0
0.6000000238 0.6000000238 0
0.6000000238 -0.6000000238 0
-0.6000000238 0 -2.205106918e-15
0.1467011422 0 0.7355126143
0.1467011422 0 -0.7355126143
0.1236302033 0 0.5871248245
0.1236302033 -1.110223025e-16 -0.5871248245
0 0 -1.25
0 0 1.75
0.2086069137 -7.139040099e-05 0.9268134236
0.2086069137 -7.139040099e-05 -0.9268134236
0.9499999881 1.110223025e-15 -2.326828888e-16
0.9499999881 0.6000000238 0
0.9499999881 -0.6000000238 0
-0.9499999881 0 -2.414966954e-15
1.149999976 0 0.25
1.149999976 0 -1.25
1.149999976 0 1.75
1.149999976 0 -0.6666666865
1.149999976 0.6000000238 0.75
1.149999976 0.6000000238 -0.25
1.149999976 0.6000000238 -1.25
1.149999976 0.6000000238 1.75
1.149999976 -0.6000000238 0.75
1.149999976 -0.6000000238 -0.25
1.149999976 -0.6000000238 -1.25
1.149999976 -0.6000000238 1.75
1.149999976 -1.850371763e-17 1.166666627
-1.149999976 0 0.25
-1.149999976 0 -1.25
-1.149999976 0 1.75
-1.149999976 0.6000000238 0.75
-1.149999976 0.6000000238 -0.25
-1.149999976 0.6000000238 -1.25
-1.149999976 0.6000000238 1.75
-1.149999976 -0.6000000238 0.75
-1.149999976 -0.6000000238 -0.25
-1.149999976 -0.6000000238 -1.25
-1.149999976 -0.6000000238 1.75
-1.149999976 -1.850371763e-17 1.166666627
-1.149999976 -1.850371763e-17 -0.6666666865
0.7027778029 0 -1.25
0.7027778029 0 1.75
-0.7027778029 0 -1.25
-0.7027778029 0 1.75
-0.7666666508 0.6000000238 1.25
-0.7666666508 -0.6000000238 1.25
0.3833333254 0.6000000238 -1.25
0.3833333254 0.6000000238 1.75
0.3833333254 -0.6000000238 -1.25
0.3833333254 -0.6000000238 1.75
-0.3833333254 0.6000000238 -1.25
-0.3833333254 0.6000000238 1.75
-0.3833333254 -0.6000000238 -1.25
-0.3833333254 -0.6000000238 1.75
-0.855920434 0.6000000238 0.4121895432
-0.855920434 0.6000000238 -0.4121895432
-0.855920434 -0.6000000238 0.4121895432
-0.855920434 -0.6000000238 -0.4121895432
0.8238621354 5.189182048e-05 0.4730234146
0.8238621354 5.189182048e-05 -0.4730234146
-0.2113948911 0.6000000238 0.9261814952
-0.2113948911 0.6000000238 -0.9261814952
-0.2113948911 -0.6000000238 0.9261814952
-0.2113948911 -0.6000000238 -0.9261814952
0.5923153162 0.6000000238 0.7427399158
0.5923153162 0.6000000238 -0.7427399158
0.5923153162 -0.6000000238 0.7427399158
0.5923153162 -0.6000000238 -0.7427399158
-0.5923153162 0 0.7427399158
-0.5923153162 0 -0.7427399158
CELLS 304 1216
3 40 36 14
3 40 14 22
3 8 40 22
3 8 22 2
3 15 19 29
3 15 29 37
3 28 18 36
3 8 2 41
3 36 18 14
3 2 23 41
3 23 15 37
3 29 19 28
3 41 23 37
3 28 19 18
3 41 31 8
3 31 6 8
3 6 30 8
3 30 40 8
3 43 29 9
3 27 43 9
3 28 42 9
3 42 26 9
3 31 41 5
3 39 31 5
3 40 30 4
3 30 38 4
3 5 37 43
3 35 5 43
3 36 4 42
3 4 34 42
3 31 39 7
3 6 31 7
3 4 36 40
3 4 38 34
3 38 30 7
3 30 6 7
3 36 42 28
3 26 42 34
3 37 5 41
3 39 5 35
3 43 37 29
3 43 27 35
3 27 9 26
3 28 9 29
3 20 38 7
3 20 7 1
3 35 13 21
3 35 21 39
3 12 16 34
3 12 38 20
3 26 17 27
3 26 16 17
3 34 16 26
3 39 21 1
3 27 13 35
3 27 17 13
3 34 38 12
3 39 1 7
3 11 20 1
3 0 11 1
3 11 0 2
3 22 11 2
3 21 10 1
3 10 0 1
3 10 23 2
3 0 10 2
3 24 12 32
3 14 24 32
3 13 25 33
3 25 15 33
3 16 24 3
3 24 18 3
3 25 17 3
3 19 25 3
3 15 25 19
3 17 25 13
3 11 22 32
3 20 11 32
3 33 15 23
3 33 21 13
3 23 10 33
3 10 21 33
3 32 12 20
3 32 22 14
3 12 24 16
3 18 24 14
3 3 18 19
3 3 17 16
3 45 74 55
3 45 55 44
3 46 44 55
3 46 55 76
3 45 54 75
3 45 44 54
3 46 77 54
3 46 54 44
3 84 58 78
3 84 78 60
3 85 79 59
3 85 61 79
3 47 78 62
3 47 64 78
3 47 63 79
3 47 79 65
3 65 79 61
3 59 79 63
3 84 76 55
3 84 55 74
3 77 61 85
3 59 75 85
3 85 54 77
3 85 75 54
3 74 58 84
3 60 76 84
3 62 78 58
3 60 78 64
3 65 64 47
3 62 63 47
3 72 64 65
3 72 65 73
3 77 51 69
3 77 69 61
3 68 60 64
3 68 64 72
3 50 60 68
3 46 51 77
3 46 82 51
3 46 76 82
3 61 69 73
3 61 73 65
3 82 76 50
3 76 60 50
3 49 75 67
3 67 75 59
3 75 49 45
3 45 49 81
3 58 74 48
3 58 48 66
3 62 70 63
3 62 66 70
3 62 58 66
3 63 70 71
3 63 71 59
3 71 67 59
3 81 48 74
3 81 74 45
3 50 57 82
3 57 80 82
3 80 57 81
3 57 48 81
3 80 56 82
3 56 51 82
3 56 80 81
3 49 56 81
3 68 52 86
3 52 66 86
3 53 69 87
3 67 53 87
3 72 83 52
3 83 70 52
3 83 73 53
3 71 83 53
3 67 87 49
3 51 87 69
3 48 57 86
3 57 50 86
3 56 49 87
3 51 56 87
3 83 72 73
3 83 71 70
3 71 53 67
3 69 53 73
3 72 52 68
3 66 52 70
3 86 66 48
3 86 50 68
3 94 141 149
3 94 92 141
3 94 140 92
3 94 148 140
3 95 139 151
3 95 151 137
3 95 150 138
3 95 136 150
3 91 149 141
3 91 141 147
3 90 140 148
3 90 146 140
3 151 145 91
3 151 91 143
3 150 90 144
3 150 142 90
3 93 147 141
3 93 141 92
3 148 144 90
3 142 146 90
3 93 140 146
3 93 92 140
3 138 150 144
3 142 150 136
3 149 91 145
3 143 91 147
3 139 145 151
3 143 137 151
3 136 95 137
3 139 95 138
3 130 122 106
3 122 97 106
3 97 122 102
3 122 128 102
3 110 124 118
3 124 134 118
3 124 110 114
3 132 124 114
3 128 122 88
3 122 130 88
3 134 88 130
3 128 88 132
3 124 132 88
3 134 124 88
3 143 128 132
3 147 128 143
3 147 102 128
3 137 132 114
3 137 143 132
3 113 137 114
3 101 102 147
3 93 101 147
3 136 137 113
3 103 100 146
3 103 146 129
3 126 142 112
3 129 146 142
3 129 142 133
3 126 115 133
3 100 93 146
3 142 136 112
3 112 136 113
3 100 101 93
3 112 115 126
3 133 142 126
3 96 108 104
3 104 108 107
3 108 98 107
3 99 96 105
3 96 99 101
3 108 96 100
3 99 105 106
3 97 99 106
3 100 96 101
3 105 96 104
3 101 99 102
3 108 100 103
3 99 97 102
3 98 108 103
3 145 134 130
3 149 145 130
3 149 130 106
3 139 118 134
3 139 134 145
3 117 118 139
3 105 149 106
3 94 149 105
3 138 117 139
3 127 116 144
3 135 144 131
3 127 135 119
3 107 148 104
3 107 131 148
3 131 144 148
3 116 117 138
3 104 148 94
3 144 116 138
3 104 94 105
3 116 127 119
3 135 127 144
3 111 120 119
3 120 109 116
3 120 116 119
3 109 121 117
3 109 120 112
3 121 109 113
3 117 121 118
3 121 110 118
3 113 109 112
3 116 109 117
3 110 121 114
3 120 111 115
3 112 120 115
3 121 113 114
3 125 111 119
3 135 125 119
3 111 125 115
3 125 133 115
3 123 131 107
3 98 123 107
3 123 98 103
3 129 123 103
3 133 89 129
3 131 89 135
3 133 125 89
3 125 135 89
3 123 129 89
3 131 123 89
CELL_TYPES 304
5
5
5
5
5
5
5
5
5
5
5
5
5
5
5
5
5
5
5
5
5
5
5
5
5
5
5
5
5
5
5
5
5
5
5
5
5
5
5
5
5
5
5
5
5
5
5
5
5
5
5
5
5
5
5
5
5
5
5
5
5
5
5
5
5
5
5
5
5
5
5
5
5
5
5
5
5
5
5
5
5
5
5
5
5
5
5
5
5
5
5
5
5
5
5
5
5
5
5
5
5
5
5
5
5
5
5
5
5
5
5
5
5
5
5
5
5
5
5
5
5
5
5
5
5
5
5
5
5
5
5
5
5
5
5
5
5
5
5
5
5
5
5
5
5
5
5
5
5
5
5
5
5
5
5
5
5
5
5
5
5
5
5
5
5
5
5
5
5
5
5
5
5
5
5
5
5
5
5
5
5
5
5
5
5
5
5
5
5
5
5
5
5
5
5
5
5
5
5
5
5
5
5
5
5
5
5
5
5
5
5
5
5
5
5
5
5
5
5
5
5
5
5
5
5
5
5
5
5
5
5
5
5
5
5
5
5
5
5
5
5
5
5
5
5
5
5
5
5
5
5
5
5
5
5
5
5
5
5
5
5
5
5
5
5
5
5
5
5
5
5
5
5
5
5
5
5
5
5
5
5
5
5
5
5
5
5
5
5
5
5
5
5
5
5
5
5
5
5
5
5
5
5
5
POINT_DATA 152
SCALARS GLOBAL_ID int 1
LOOKUP_TABLE default
-1 
-1 
-1 
-1 
-1 
-1 
-1 
-1 
-1 
-1 
-1 
-1 
-1 
-1 
-1 
-1 
-1 
-1 
-1 
-1 
-1 
-1 
-1 
-1 
-1 
-1 
-1 
-1 
-1 
-1 
-1 
-1 
-1 
-1 
-1 
-1 
-1 
-1 
-1 
-1 
-1 
-1 
-1 
-1 
-1 
-1 
-1 
-1 
-1 
-1 
-1 
-1 
-1 
-1 
-1 
-1 
-1 
-1 
-1 
-1 
-1 
-1 
-1 
-1 
-1 
-1 
-1 
-1 
-1 
-1 
-1 
-1 
-1 
-1 
-1 
-1 
-1 
-1 
-1 
-1 
-1 
-1 
-1 
-1 
-1 
-1 
-1 
-1 
-1 
-1 
-1 
-1 
-1 
-1 
-1 
-1 
-1 
-1 
-1 
-1 
-1 
-1 
-1 
-1 
-1 
-1 
-1 
-1 
-1 
-1 
-1 
-1 
-1 
-1 
-1 
-1 
-1 
-1 
-1 
-1 
-1 
-1 
-1 
-1 
-1 
-1 
-1 
-1 
-1 
-1 
-1 
-1 
-1 
-1 
-1 
-1 
-1 
-1 
-1 
-1 
-1 
-1 
-1 
-1 
-1 
-1 
-1 
-1 
-1 
-1 
-1 
-1 
CELL_DATA 304
SCALARS GLOBAL_ID int 1
LOOKUP_TABLE default
-1 
-1 
-1 
-1 
-1 
-1 
-1 
-1 
-1 
-1 
-1 
-1 
-1 
-1 
-1 
-1 
-1 
-1 
-1 
-1 
-1 
-1 
-1 
-1 
-1 
-1 
-1 
-1 
-1 
-1 
-1 
-1 
-1 
-1 
-1 
-1 
-1 
-1 
-1 
-1 
-1 
-1 
-1 
-1 
-1 
-1 
-1 
-1 
-1 
-1 
-1 
-1 
-1 
-1 
-1 
-1 
-1 
-1 
-1 
-1 
-1 
-1 
-1 
-1 
-1 
-1 
-1 
-1 
-1 
-1 
-1 
-1 
-1 
-1 
-1 
-1 
-1 
-1 
-1 
-1 
-1 
-1 
-1 
-1 
-1 
-1 
-1 
-1 
-1 
-1 
-1 
-1 
-1 
-1 
-1 
-1 
-1 
-1 
-1 
-1 
-1 
-1 
-1 
-1 
-1 
-1 
-1 
-1 
-1 
-1 
-1 
-1 
-1 
-1 
-1 
-1 
-1 
-1 
-1 
-1 
-1 
-1 
-1 
-1 
-1 
-1 
-1 
-1 
-1 
-1 
-1 
-1 
-1 
-1 
-1 
-1 
-1 
-1 
-1 
-1 
-1 
-1 
-1 
-1 
-1 
-1 
-1 
-1 
-1 
-1 
-1 
-1 
-1 
-1 
-1 
-1 
-1 
-1 
-1 
-1 
-1 
-1 
-1 
-1 
-1 
-1 
-1 
-1 
-1 
-1 
-1 
-1 
-1 
-1 
-1 
-1 
-1 
-1 
-1 
-1 
-1 
-1 
-1 
-1 
-1 
-1 
-1 
-1 
-1 
-1 
-1 
-1 
-1 
-1 
-1 
-1 
-1 
-1 
-1 
-1 
-1 
-1 
-1 
-1 
-1 
-1 
-1 
-1 
-1 
-1 
-1 
-1 
-1 
-1 
-1 
-1 
-1 
-1 
-1 
-1 
-1 
-1 
-1 
-1 
-1 
-1 
-1 
-1 
-1 
-1 
-1 
-1 
-1 
-1 
-1 
-1 
-1 
-1 
-1 
-1 
-1 
-1 
-1 
-1 
-1 
-1 
-1 
-1 
-1 
-1 
-1 
-1 
-1 
-1 
-1 
-1 
-1 
-1 
-1 
-1 
-1 
-1 
-1 
-1 
-1 
-1 
-1 
-1 
-1 
-1 
-1 
-1 
-1 
-1 
-1 
-1 
-1 
-1 
-1 
-1 
-1 
-1 
-1 
-1 
-1 
-1 
-1 
-1 
-1 
-1 
-1 
-1 
-1 
-1 
-1 
-1 
-1 
-1 
-1 
-1 
-1 
-1 
-1 
-1 
